# LAMMPS data file

50 atoms
49 bonds

1 atom types
1 bond types

-190.0 190.0 xlo xhi
-190.0 190.0 ylo yhi
-190.0 190.0 zlo zhi

Atoms

1	1	1	0	 0	 0
2	1	1	0.0	 0.0	 3.8
3	1	1	0.0	 0.0	 7.6
4	1	1	0.0	 0.0	 11.399999999999999
5	1	1	0.0	 0.0	 15.2
6	1	1	0.0	 0.0	 19.0
7	1	1	0.0	 0.0	 22.8
8	1	1	0.0	 0.0	 26.6
9	1	1	0.0	 0.0	 30.400000000000002
10	1	1	0.0	 0.0	 34.2
11	1	1	0.0	 0.0	 38.0
12	1	1	0.0	 0.0	 41.8
13	1	1	0.0	 0.0	 45.599999999999994
14	1	1	0.0	 0.0	 49.39999999999999
15	1	1	0.0	 0.0	 53.19999999999999
16	1	1	0.0	 0.0	 56.999999999999986
17	1	1	0.0	 0.0	 60.79999999999998
18	1	1	0.0	 0.0	 64.59999999999998
19	1	1	0.0	 0.0	 68.39999999999998
20	1	1	0.0	 0.0	 72.19999999999997
21	1	1	0.0	 0.0	 75.99999999999997
22	1	1	0.0	 0.0	 79.79999999999997
23	1	1	0.0	 0.0	 83.59999999999997
24	1	1	0.0	 0.0	 87.39999999999996
25	1	1	0.0	 0.0	 91.19999999999996
26	1	1	0.0	 0.0	 94.99999999999996
27	1	1	0.0	 0.0	 98.79999999999995
28	1	1	0.0	 0.0	 102.59999999999995
29	1	1	0.0	 0.0	 106.39999999999995
30	1	1	0.0	 0.0	 110.19999999999995
31	1	1	0.0	 0.0	 113.99999999999994
32	1	1	0.0	 0.0	 117.79999999999994
33	1	1	0.0	 0.0	 121.59999999999994
34	1	1	0.0	 0.0	 125.39999999999993
35	1	1	0.0	 0.0	 129.19999999999993
36	1	1	0.0	 0.0	 132.99999999999994
37	1	1	0.0	 0.0	 136.79999999999995
38	1	1	0.0	 0.0	 140.59999999999997
39	1	1	0.0	 0.0	 144.39999999999998
40	1	1	0.0	 0.0	 148.2
41	1	1	0.0	 0.0	 152.0
42	1	1	0.0	 0.0	 155.8
43	1	1	0.0	 0.0	 159.60000000000002
44	1	1	0.0	 0.0	 163.40000000000003
45	1	1	0.0	 0.0	 167.20000000000005
46	1	1	0.0	 0.0	 171.00000000000006
47	1	1	0.0	 0.0	 174.80000000000007
48	1	1	0.0	 0.0	 178.60000000000008
49	1	1	0.0	 0.0	 182.4000000000001
50	1	1	0.0	 0.0	 186.2000000000001

Bonds

1	1	1	2
2	1	2	3
3	1	3	4
4	1	4	5
5	1	5	6
6	1	6	7
7	1	7	8
8	1	8	9
9	1	9	10
10	1	10	11
11	1	11	12
12	1	12	13
13	1	13	14
14	1	14	15
15	1	15	16
16	1	16	17
17	1	17	18
18	1	18	19
19	1	19	20
20	1	20	21
21	1	21	22
22	1	22	23
23	1	23	24
24	1	24	25
25	1	25	26
26	1	26	27
27	1	27	28
28	1	28	29
29	1	29	30
30	1	30	31
31	1	31	32
32	1	32	33
33	1	33	34
34	1	34	35
35	1	35	36
36	1	36	37
37	1	37	38
38	1	38	39
39	1	39	40
40	1	40	41
41	1	41	42
42	1	42	43
43	1	43	44
44	1	44	45
45	1	45	46
46	1	46	47
47	1	47	48
48	1	48	49
49	1	49	50
